
     Program PHONON v.6.7MaX starts on 27Nov2023 at 15:27:29 

     This program is part of the open-source Quantum ESPRESSO suite
     for quantum simulation of materials; please cite
         "P. Giannozzi et al., J. Phys.:Condens. Matter 21 395502 (2009);
         "P. Giannozzi et al., J. Phys.:Condens. Matter 29 465901 (2017);
          URL http://www.quantum-espresso.org", 
     in publications or presentations arising from this work. More details at
     http://www.quantum-espresso.org/quote

     Parallel version (MPI), running on     1 processors

     MPI processes distributed on     1 nodes
     Waiting for input...
     Reading input from standard input

     Reading xml data from directory:

     /home/user11/Downloads/lab-test/tmp/_ph0/tinisn.save/
     Message from routine qexsd_readschema :
     input info not found or not readable in xml file
     Message from routine readpp:
     file /home/user11/Downloads/lab-test/tmp/_ph0/tinisn.save/ti_pbe_v1.4.uspp.F.UPF not found
     Message from routine readpp:
     file /home/user11/Downloads/lab-test/tmp/_ph0/tinisn.save/ni_pbe_v1.4.uspp.F.UPF not found
     Message from routine readpp:
     file /home/user11/Downloads/lab-test/tmp/_ph0/tinisn.save/Sn_pbe_v1.uspp.F.UPF not found

     IMPORTANT: XC functional enforced from input :
     Exchange-correlation= PBE
                           (   1   4   3   4   0   0   0)
     Any further DFT definition will be discarded
     Please, verify this is what you really want


     G-vector sticks info
     --------------------
     sticks:   dense  smooth     PW     G-vecs:    dense   smooth      PW
     Sum         511     511    199                 7799     7799    1807


     Check: negative core charge=   -0.000297
     read_file_new: Wavefunctions not in collected format?!?
     read_file: Wavefunctions in collected format not available
 end of file reached, closing tag not found
warning: file closed at level 1 with tag Root open
        2 /   3 q-points for this run, from  2 to  3:
       N       xq(1)         xq(2)         xq(3) 
       1   0.000000000   0.000000000   0.000000000
       2   0.500000000  -0.500000000   0.500000000
       3   0.000000000  -1.000000000   0.000000000


     Calculation of q =    0.5000000  -0.5000000   0.5000000

     Bands found: reading from /home/user11/Downloads/lab-test/tmp/_ph0/

     Reading xml data from directory:

     /home/user11/Downloads/lab-test/tmp/_ph0/tinisn.save/
     Message from routine qexsd_readschema :
     input info not found or not readable in xml file
     Message from routine readpp:
     file /home/user11/Downloads/lab-test/tmp/_ph0/tinisn.save/ti_pbe_v1.4.uspp.F.UPF not found
     Message from routine readpp:
     file /home/user11/Downloads/lab-test/tmp/_ph0/tinisn.save/ni_pbe_v1.4.uspp.F.UPF not found
     Message from routine readpp:
     file /home/user11/Downloads/lab-test/tmp/_ph0/tinisn.save/Sn_pbe_v1.uspp.F.UPF not found

     IMPORTANT: XC functional enforced from input :
     Exchange-correlation= PBE
                           (   1   4   3   4   0   0   0)
     Any further DFT definition will be discarded
     Please, verify this is what you really want


     G-vector sticks info
     --------------------
     sticks:   dense  smooth     PW     G-vecs:    dense   smooth      PW
     Sum         511     511    199                 7799     7799    1807


     Check: negative core charge=   -0.000297
     read_file_new: Wavefunctions not in collected format?!?
     read_file: Wavefunctions in collected format not available
 end of file reached, closing tag not found
warning: file closed at level 1 with tag Root open
 end of file reached, closing tag not found
warning: file closed at level 1 with tag Root open
 end of file reached, closing tag not found
warning: file closed at level 1 with tag Root open
 end of file reached, closing tag not found
warning: file closed at level 1 with tag Root open
     Message from routine ph_restart_set_filename :
     cannot open file for reading or writing
     Message from routine ph_restart_set_filename :
     cannot open file for reading or writing
     Message from routine ph_restart_set_filename :
     cannot open file for reading or writing

     Restart in Phonon calculation

     phonons of tisisn                                                          

     bravais-lattice index     =            2
     lattice parameter (alat)  =      11.2270  a.u.
     unit-cell volume          =     353.7783 (a.u.)^3
     number of atoms/cell      =            3
     number of atomic types    =            3
     kinetic-energy cut-off    =      30.0000  Ry
     charge density cut-off    =     120.0000  Ry
     convergence threshold     =      1.0E-12
     beta                      =       0.7000
     number of iterations used =            4
     Exchange-correlation= PBE
                           (   1   4   3   4   0   0   0)


     celldm(1)=   11.22700  celldm(2)=    0.00000  celldm(3)=    0.00000
     celldm(4)=    0.00000  celldm(5)=    0.00000  celldm(6)=    0.00000

     crystal axes: (cart. coord. in units of alat)
               a(1) = ( -0.5000  0.0000  0.5000 )  
               a(2) = (  0.0000  0.5000  0.5000 )  
               a(3) = ( -0.5000  0.5000  0.0000 )  

     reciprocal axes: (cart. coord. in units 2 pi/alat)
               b(1) = ( -1.0000 -1.0000  1.0000 )  
               b(2) = (  1.0000  1.0000  1.0000 )  
               b(3) = ( -1.0000  1.0000 -1.0000 )  


     Atoms inside the unit cell: 

     Cartesian axes

     site n.  atom      mass           positions (alat units)
        1     Ti  47.8670   tau(    1) = (    0.50000    0.50000    0.50000  )
        2     Ni  58.6935   tau(    2) = (    0.25000    0.25000    0.25000  )
        3     Sn 118.7100   tau(    3) = (    0.00000    0.00000    0.00000  )

     Computing dynamical matrix for 
                    q = (   0.5000000  -0.5000000   0.5000000 )

      7 Sym.Ops. (with q -> -q+G )


     G cutoff =  383.1325  (   7799 G-vectors)     FFT grid: ( 27, 27, 27)
     number of k points=   378

     PseudoPot. # 1 for Ti read from file:
     /home/user11/Downloads/lab-test/pseudo/ti_pbe_v1.4.uspp.F.UPF
     MD5 check sum: 88a00a6731bd790ddea75d31a80cb452
     Pseudo is Ultrasoft + core correction, Zval = 12.0
     Generated by new atomic code, or converted to UPF format
     Using radial grid of  851 points,  6 beta functions with: 
                l(1) =   0
                l(2) =   0
                l(3) =   1
                l(4) =   1
                l(5) =   2
                l(6) =   2
     Q(r) pseudized with  6 coefficients,  rinner =    1.000   1.000   1.000
                                                       1.000   1.000

     PseudoPot. # 2 for Ni read from file:
     /home/user11/Downloads/lab-test/pseudo/ni_pbe_v1.4.uspp.F.UPF
     MD5 check sum: 1ee80287db30b12d2bc1f57a5b5d6409
     Pseudo is Ultrasoft + core correction, Zval = 18.0
     Generated by new atomic code, or converted to UPF format
     Using radial grid of  865 points,  6 beta functions with: 
                l(1) =   0
                l(2) =   0
                l(3) =   1
                l(4) =   1
                l(5) =   2
                l(6) =   2
     Q(r) pseudized with 10 coefficients,  rinner =    0.980   0.980   0.980
                                                       0.980   0.980

     PseudoPot. # 3 for Sn read from file:
     /home/user11/Downloads/lab-test/pseudo/Sn_pbe_v1.uspp.F.UPF
     MD5 check sum: 4cf58ce39ec5d5d420df3dd08604eb00
     Pseudo is Ultrasoft + core correction, Zval = 14.0
     Generated by new atomic code, or converted to UPF format
     Using radial grid of  891 points,  6 beta functions with: 
                l(1) =   0
                l(2) =   0
                l(3) =   1
                l(4) =   1
                l(5) =   2
                l(6) =   2
     Q(r) pseudized with  6 coefficients,  rinner =    1.200   1.200   1.200
                                                       1.200   1.200

     Mode symmetry, C_3v (3m)   point group:


     Atomic displacements:
     There are    6 irreducible representations

     Representation     1      1 modes -  Done

     Representation     2      1 modes -  Done

     Representation     3      1 modes -  Done

     Representation     4      2 modes -  To be done

     Representation     5      2 modes -  To be done

     Representation     6      2 modes -  To be done


     PHONON       :     15.88s CPU      3.96s WALL



     Representation #   4 modes #   4   5

     Self-consistent Calculation

      iter #   3 total cpu time :    83.0 secs   av.it.:   3.5
      thresh= 3.848E-04 alpha_mix =  0.700 |ddv_scf|^2 =  9.517E-08

      iter #   4 total cpu time :   335.4 secs   av.it.:  20.6
      thresh= 3.085E-05 alpha_mix =  0.700 |ddv_scf|^2 =  2.865E-09

      iter #   5 total cpu time :   582.6 secs   av.it.:  20.0
      thresh= 5.353E-06 alpha_mix =  0.700 |ddv_scf|^2 =  1.246E-10

      iter #   6 total cpu time :   832.0 secs   av.it.:  20.2
      thresh= 1.116E-06 alpha_mix =  0.700 |ddv_scf|^2 =  7.798E-12

      iter #   7 total cpu time :  1077.7 secs   av.it.:  20.0
      thresh= 2.792E-07 alpha_mix =  0.700 |ddv_scf|^2 =  2.338E-13

     End of self-consistent calculation

     Convergence has been achieved 


     Representation #   5 modes #   6   7

     Self-consistent Calculation

      iter #   1 total cpu time :  1239.7 secs   av.it.:  12.0
      thresh= 1.000E-02 alpha_mix =  0.700 |ddv_scf|^2 =  2.142E-05

      iter #   2 total cpu time :  1481.9 secs   av.it.:  19.6
      thresh= 4.629E-04 alpha_mix =  0.700 |ddv_scf|^2 =  3.714E-06

      iter #   3 total cpu time :  1721.3 secs   av.it.:  19.4
      thresh= 1.927E-04 alpha_mix =  0.700 |ddv_scf|^2 =  1.318E-08

      iter #   4 total cpu time :  1972.1 secs   av.it.:  20.4
      thresh= 1.148E-05 alpha_mix =  0.700 |ddv_scf|^2 =  1.062E-09

      iter #   5 total cpu time :  2216.3 secs   av.it.:  19.8
      thresh= 3.259E-06 alpha_mix =  0.700 |ddv_scf|^2 =  3.695E-11

      iter #   6 total cpu time :  2458.3 secs   av.it.:  19.6
      thresh= 6.079E-07 alpha_mix =  0.700 |ddv_scf|^2 =  1.656E-12

      iter #   7 total cpu time :  2696.6 secs   av.it.:  19.3
      thresh= 1.287E-07 alpha_mix =  0.700 |ddv_scf|^2 =  7.861E-14

     End of self-consistent calculation

     Convergence has been achieved 


     Representation #   6 modes #   8   9

     Self-consistent Calculation

      iter #   1 total cpu time :  2855.7 secs   av.it.:  11.7
      thresh= 1.000E-02 alpha_mix =  0.700 |ddv_scf|^2 =  1.995E-05

      iter #   2 total cpu time :  3099.3 secs   av.it.:  19.8
      thresh= 4.467E-04 alpha_mix =  0.700 |ddv_scf|^2 =  4.388E-06

      iter #   3 total cpu time :  3340.1 secs   av.it.:  19.5
      thresh= 2.095E-04 alpha_mix =  0.700 |ddv_scf|^2 =  1.961E-08

      iter #   4 total cpu time :  3589.0 secs   av.it.:  20.2
      thresh= 1.400E-05 alpha_mix =  0.700 |ddv_scf|^2 =  2.061E-09

      iter #   5 total cpu time :  3831.8 secs   av.it.:  19.7
      thresh= 4.540E-06 alpha_mix =  0.700 |ddv_scf|^2 =  4.299E-11

      iter #   6 total cpu time :  4075.7 secs   av.it.:  19.8
      thresh= 6.557E-07 alpha_mix =  0.700 |ddv_scf|^2 =  8.372E-13

     End of self-consistent calculation

     Convergence has been achieved 

     Number of q in the star =    4
     List of q in the star:
          1   0.500000000  -0.500000000   0.500000000
          2  -0.500000000  -0.500000000  -0.500000000
          3  -0.500000000   0.500000000   0.500000000
          4   0.500000000   0.500000000  -0.500000000

     Diagonalizing the dynamical matrix

     q = (    0.500000000  -0.500000000   0.500000000 ) 

 **************************************************************************
     freq (    1) =       4.202910 [THz] =     140.193993 [cm-1]
     freq (    2) =       4.202910 [THz] =     140.193993 [cm-1]
     freq (    3) =       4.674305 [THz] =     155.918022 [cm-1]
     freq (    4) =       6.228493 [THz] =     207.760169 [cm-1]
     freq (    5) =       6.228493 [THz] =     207.760169 [cm-1]
     freq (    6) =       6.566380 [THz] =     219.030857 [cm-1]
     freq (    7) =       8.900421 [THz] =     296.886080 [cm-1]
     freq (    8) =       8.900421 [THz] =     296.886080 [cm-1]
     freq (    9) =       9.622936 [THz] =     320.986608 [cm-1]
 **************************************************************************

     Mode symmetry, C_3v (3m)   point group:

     freq (   1-   2) =        140.2  [cm-1]   --> E    L_3           
     freq (   3-   3) =        155.9  [cm-1]   --> A_1  L_1           
     freq (   4-   5) =        207.8  [cm-1]   --> E    L_3           
     freq (   6-   6) =        219.0  [cm-1]   --> A_1  L_1           
     freq (   7-   8) =        296.9  [cm-1]   --> E    L_3           
     freq (   9-   9) =        321.0  [cm-1]   --> A_1  L_1           

     Calculation of q =    0.0000000  -1.0000000   0.0000000

     Subspace diagonalization in iterative solution of the eigenvalue problem:
     a serial algorithm will be used


     G-vector sticks info
     --------------------
     sticks:   dense  smooth     PW     G-vecs:    dense   smooth      PW
     Sum         511     511    199                 7799     7799    1807


     Title: 
     phonons of tisisn                                                          


     bravais-lattice index     =            2
     lattice parameter (alat)  =      11.2270  a.u.
     unit-cell volume          =     353.7783 (a.u.)^3
     number of atoms/cell      =            3
     number of atomic types    =            3
     number of electrons       =        44.00
     number of Kohn-Sham states=           22
     kinetic-energy cutoff     =      30.0000  Ry
     charge density cutoff     =     120.0000  Ry
     Exchange-correlation= PBE
                           (   1   4   3   4   0   0   0)

     celldm(1)=  11.227000  celldm(2)=   0.000000  celldm(3)=   0.000000
     celldm(4)=   0.000000  celldm(5)=   0.000000  celldm(6)=   0.000000

     crystal axes: (cart. coord. in units of alat)
               a(1) = (  -0.500000   0.000000   0.500000 )  
               a(2) = (   0.000000   0.500000   0.500000 )  
               a(3) = (  -0.500000   0.500000   0.000000 )  

     reciprocal axes: (cart. coord. in units 2 pi/alat)
               b(1) = ( -1.000000 -1.000000  1.000000 )  
               b(2) = (  1.000000  1.000000  1.000000 )  
               b(3) = ( -1.000000  1.000000 -1.000000 )  


     PseudoPot. # 1 for Ti read from file:
     /home/user11/Downloads/lab-test/pseudo/ti_pbe_v1.4.uspp.F.UPF
     MD5 check sum: 88a00a6731bd790ddea75d31a80cb452
     Pseudo is Ultrasoft + core correction, Zval = 12.0
     Generated by new atomic code, or converted to UPF format
     Using radial grid of  851 points,  6 beta functions with: 
                l(1) =   0
                l(2) =   0
                l(3) =   1
                l(4) =   1
                l(5) =   2
                l(6) =   2
     Q(r) pseudized with  6 coefficients,  rinner =    1.000   1.000   1.000
                                                       1.000   1.000

     PseudoPot. # 2 for Ni read from file:
     /home/user11/Downloads/lab-test/pseudo/ni_pbe_v1.4.uspp.F.UPF
     MD5 check sum: 1ee80287db30b12d2bc1f57a5b5d6409
     Pseudo is Ultrasoft + core correction, Zval = 18.0
     Generated by new atomic code, or converted to UPF format
     Using radial grid of  865 points,  6 beta functions with: 
                l(1) =   0
                l(2) =   0
                l(3) =   1
                l(4) =   1
                l(5) =   2
                l(6) =   2
     Q(r) pseudized with 10 coefficients,  rinner =    0.980   0.980   0.980
                                                       0.980   0.980

     PseudoPot. # 3 for Sn read from file:
     /home/user11/Downloads/lab-test/pseudo/Sn_pbe_v1.uspp.F.UPF
     MD5 check sum: 4cf58ce39ec5d5d420df3dd08604eb00
     Pseudo is Ultrasoft + core correction, Zval = 14.0
     Generated by new atomic code, or converted to UPF format
     Using radial grid of  891 points,  6 beta functions with: 
                l(1) =   0
                l(2) =   0
                l(3) =   1
                l(4) =   1
                l(5) =   2
                l(6) =   2
     Q(r) pseudized with  6 coefficients,  rinner =    1.200   1.200   1.200
                                                       1.200   1.200

     atomic species   valence    mass     pseudopotential
        Ti            12.00    47.86700     Ti( 1.00)
        Ni            18.00    58.69354     Ni( 1.00)
        Sn            14.00   118.71000     Sn( 1.00)

     24 Sym. Ops. (no inversion) found



   Cartesian axes

     site n.     atom                  positions (alat units)
         1           Ti  tau(   1) = (   0.5000000   0.5000000   0.5000000  )
         2           Ni  tau(   2) = (   0.2500000   0.2500000   0.2500000  )
         3           Sn  tau(   3) = (   0.0000000   0.0000000   0.0000000  )

     number of k points=   326

     Number of k-points >= 100: set verbosity='high' to print them.

     Dense  grid:     7799 G-vectors     FFT dimensions: (  27,  27,  27)

     Estimated max dynamical RAM per process >      29.07 MB

     Check: negative core charge=   -0.000297

     The potential is recalculated from file :
     /home/user11/Downloads/lab-test/tmp/_ph0/tinisn.save/charge-density

     Starting wfcs are   32 atomic wfcs

     Band Structure Calculation
     Davidson diagonalization with overlap

     ethr =  2.27E-11,  avg # of iterations = 15.1

     total cpu time spent up to now is     4199.1 secs

     End of band structure calculation

     Number of k-points >= 100: set verbosity='high' to print the bands.

     highest occupied level (ev):    13.4631

     Writing output data file /home/user11/Downloads/lab-test/tmp/_ph0/tinisn.save/
     Message from routine ph_restart_set_filename :
     cannot open file for reading or writing
     Message from routine ph_restart_set_filename :
     cannot open file for reading or writing
     Message from routine ph_restart_set_filename :
     cannot open file for reading or writing
     Message from routine ph_restart_set_filename :
     cannot open file for reading or writing
     Message from routine ph_restart_set_filename :
     cannot open file for reading or writing
     Message from routine ph_restart_set_filename :
     cannot open file for reading or writing
     Message from routine ph_restart_set_filename :
     cannot open file for reading or writing

     phonons of tisisn                                                          

     bravais-lattice index     =            2
     lattice parameter (alat)  =      11.2270  a.u.
     unit-cell volume          =     353.7783 (a.u.)^3
     number of atoms/cell      =            3
     number of atomic types    =            3
     kinetic-energy cut-off    =      30.0000  Ry
     charge density cut-off    =     120.0000  Ry
     convergence threshold     =      1.0E-12
     beta                      =       0.7000
     number of iterations used =            4
     Exchange-correlation= PBE
                           (   1   4   3   4   0   0   0)


     celldm(1)=   11.22700  celldm(2)=    0.00000  celldm(3)=    0.00000
     celldm(4)=    0.00000  celldm(5)=    0.00000  celldm(6)=    0.00000

     crystal axes: (cart. coord. in units of alat)
               a(1) = ( -0.5000  0.0000  0.5000 )  
               a(2) = (  0.0000  0.5000  0.5000 )  
               a(3) = ( -0.5000  0.5000  0.0000 )  

     reciprocal axes: (cart. coord. in units 2 pi/alat)
               b(1) = ( -1.0000 -1.0000  1.0000 )  
               b(2) = (  1.0000  1.0000  1.0000 )  
               b(3) = ( -1.0000  1.0000 -1.0000 )  


     Atoms inside the unit cell: 

     Cartesian axes

     site n.  atom      mass           positions (alat units)
        1     Ti  47.8670   tau(    1) = (    0.50000    0.50000    0.50000  )
        2     Ni  58.6935   tau(    2) = (    0.25000    0.25000    0.25000  )
        3     Sn 118.7100   tau(    3) = (    0.00000    0.00000    0.00000  )

     Computing dynamical matrix for 
                    q = (   0.0000000  -1.0000000   0.0000000 )

      9 Sym.Ops. (with q -> -q+G )


     G cutoff =  383.1325  (   7799 G-vectors)     FFT grid: ( 27, 27, 27)
     number of k points=   326

     PseudoPot. # 1 for Ti read from file:
     /home/user11/Downloads/lab-test/pseudo/ti_pbe_v1.4.uspp.F.UPF
     MD5 check sum: 88a00a6731bd790ddea75d31a80cb452
     Pseudo is Ultrasoft + core correction, Zval = 12.0
     Generated by new atomic code, or converted to UPF format
     Using radial grid of  851 points,  6 beta functions with: 
                l(1) =   0
                l(2) =   0
                l(3) =   1
                l(4) =   1
                l(5) =   2
                l(6) =   2
     Q(r) pseudized with  6 coefficients,  rinner =    1.000   1.000   1.000
                                                       1.000   1.000

     PseudoPot. # 2 for Ni read from file:
     /home/user11/Downloads/lab-test/pseudo/ni_pbe_v1.4.uspp.F.UPF
     MD5 check sum: 1ee80287db30b12d2bc1f57a5b5d6409
     Pseudo is Ultrasoft + core correction, Zval = 18.0
     Generated by new atomic code, or converted to UPF format
     Using radial grid of  865 points,  6 beta functions with: 
                l(1) =   0
                l(2) =   0
                l(3) =   1
                l(4) =   1
                l(5) =   2
                l(6) =   2
     Q(r) pseudized with 10 coefficients,  rinner =    0.980   0.980   0.980
                                                       0.980   0.980

     PseudoPot. # 3 for Sn read from file:
     /home/user11/Downloads/lab-test/pseudo/Sn_pbe_v1.uspp.F.UPF
     MD5 check sum: 4cf58ce39ec5d5d420df3dd08604eb00
     Pseudo is Ultrasoft + core correction, Zval = 14.0
     Generated by new atomic code, or converted to UPF format
     Using radial grid of  891 points,  6 beta functions with: 
                l(1) =   0
                l(2) =   0
                l(3) =   1
                l(4) =   1
                l(5) =   2
                l(6) =   2
     Q(r) pseudized with  6 coefficients,  rinner =    1.200   1.200   1.200
                                                       1.200   1.200

     Mode symmetry, D_2d (-42m) point group:


     Atomic displacements:
     There are    6 irreducible representations

     Representation     1      1 modes -  To be done

     Representation     2      1 modes -  To be done

     Representation     3      1 modes -  To be done

     Representation     4      2 modes -  To be done

     Representation     5      2 modes -  To be done

     Representation     6      2 modes -  To be done



     Alpha used in Ewald sum =   1.1000
     PHONON       :      9h15m CPU      1h10m WALL



     Representation #   1 mode #   1

     Self-consistent Calculation

      iter #   1 total cpu time :  4321.6 secs   av.it.:  14.1
      thresh= 1.000E-02 alpha_mix =  0.700 |ddv_scf|^2 =  6.695E-03

      iter #   2 total cpu time :  4418.9 secs   av.it.:  18.0
      thresh= 8.182E-03 alpha_mix =  0.700 |ddv_scf|^2 =  3.911E-01

      iter #   3 total cpu time :  4512.5 secs   av.it.:  17.1
      thresh= 1.000E-02 alpha_mix =  0.700 |ddv_scf|^2 =  7.811E-03

      iter #   4 total cpu time :  4592.4 secs   av.it.:  14.2
      thresh= 8.838E-03 alpha_mix =  0.700 |ddv_scf|^2 =  8.137E-05

      iter #   5 total cpu time :  4672.6 secs   av.it.:  14.3
      thresh= 9.021E-04 alpha_mix =  0.700 |ddv_scf|^2 =  1.699E-05

      iter #   6 total cpu time :  4752.3 secs   av.it.:  14.3
      thresh= 4.122E-04 alpha_mix =  0.700 |ddv_scf|^2 =  6.338E-08

      iter #   7 total cpu time :  4835.7 secs   av.it.:  15.0
      thresh= 2.518E-05 alpha_mix =  0.700 |ddv_scf|^2 =  2.702E-10

      iter #   8 total cpu time :  4921.2 secs   av.it.:  15.5
      thresh= 1.644E-06 alpha_mix =  0.700 |ddv_scf|^2 =  1.450E-12

      iter #   9 total cpu time :  5012.5 secs   av.it.:  16.7
      thresh= 1.204E-07 alpha_mix =  0.700 |ddv_scf|^2 =  3.383E-12

      iter #  10 total cpu time :  5089.0 secs   av.it.:  13.5
      thresh= 1.839E-07 alpha_mix =  0.700 |ddv_scf|^2 =  1.087E-13

     End of self-consistent calculation

     Convergence has been achieved 


     Representation #   2 mode #   2

     Self-consistent Calculation

      iter #   1 total cpu time :  5163.0 secs   av.it.:  12.7
      thresh= 1.000E-02 alpha_mix =  0.700 |ddv_scf|^2 =  1.190E-03

      iter #   2 total cpu time :  5262.9 secs   av.it.:  18.6
      thresh= 3.450E-03 alpha_mix =  0.700 |ddv_scf|^2 =  4.025E-02

      iter #   3 total cpu time :  5352.2 secs   av.it.:  16.3
      thresh= 1.000E-02 alpha_mix =  0.700 |ddv_scf|^2 =  5.784E-03

      iter #   4 total cpu time :  5434.5 secs   av.it.:  14.8
      thresh= 7.605E-03 alpha_mix =  0.700 |ddv_scf|^2 =  6.222E-05

      iter #   5 total cpu time :  5519.2 secs   av.it.:  15.3
      thresh= 7.888E-04 alpha_mix =  0.700 |ddv_scf|^2 =  1.028E-06

      iter #   6 total cpu time :  5603.2 secs   av.it.:  15.1
      thresh= 1.014E-04 alpha_mix =  0.700 |ddv_scf|^2 =  4.835E-08

      iter #   7 total cpu time :  5687.6 secs   av.it.:  15.3
      thresh= 2.199E-05 alpha_mix =  0.700 |ddv_scf|^2 =  4.015E-09

      iter #   8 total cpu time :  5768.2 secs   av.it.:  14.5
      thresh= 6.336E-06 alpha_mix =  0.700 |ddv_scf|^2 =  4.273E-12

      iter #   9 total cpu time :  5859.4 secs   av.it.:  16.7
      thresh= 2.067E-07 alpha_mix =  0.700 |ddv_scf|^2 =  1.658E-12

      iter #  10 total cpu time :  5947.2 secs   av.it.:  16.1
      thresh= 1.288E-07 alpha_mix =  0.700 |ddv_scf|^2 =  5.146E-14

     End of self-consistent calculation

     Convergence has been achieved 


     Representation #   3 mode #   3

     Self-consistent Calculation

      iter #   1 total cpu time :  6021.5 secs   av.it.:  12.8
      thresh= 1.000E-02 alpha_mix =  0.700 |ddv_scf|^2 =  1.578E-03

      iter #   2 total cpu time :  6121.1 secs   av.it.:  18.5
      thresh= 3.973E-03 alpha_mix =  0.700 |ddv_scf|^2 =  5.627E-02

      iter #   3 total cpu time :  6212.0 secs   av.it.:  16.7
      thresh= 1.000E-02 alpha_mix =  0.700 |ddv_scf|^2 =  7.267E-03

      iter #   4 total cpu time :  6293.7 secs   av.it.:  14.7
      thresh= 8.525E-03 alpha_mix =  0.700 |ddv_scf|^2 =  6.243E-05

      iter #   5 total cpu time :  6375.5 secs   av.it.:  14.7
      thresh= 7.901E-04 alpha_mix =  0.700 |ddv_scf|^2 =  1.910E-06

      iter #   6 total cpu time :  6458.8 secs   av.it.:  15.1
      thresh= 1.382E-04 alpha_mix =  0.700 |ddv_scf|^2 =  1.092E-08

      iter #   7 total cpu time :  6544.2 secs   av.it.:  15.5
      thresh= 1.045E-05 alpha_mix =  0.700 |ddv_scf|^2 =  8.932E-10

      iter #   8 total cpu time :  6625.5 secs   av.it.:  14.6
      thresh= 2.989E-06 alpha_mix =  0.700 |ddv_scf|^2 =  4.760E-11

      iter #   9 total cpu time :  6714.0 secs   av.it.:  16.2
      thresh= 6.899E-07 alpha_mix =  0.700 |ddv_scf|^2 =  3.174E-12

      iter #  10 total cpu time :  6797.4 secs   av.it.:  15.1
      thresh= 1.782E-07 alpha_mix =  0.700 |ddv_scf|^2 =  7.463E-15

     End of self-consistent calculation

     Convergence has been achieved 


     Representation #   4 modes #   4   5

     Self-consistent Calculation

      iter #   1 total cpu time :  6940.9 secs   av.it.:  12.4
      thresh= 1.000E-02 alpha_mix =  0.700 |ddv_scf|^2 =  3.588E-05

      iter #   2 total cpu time :  7153.2 secs   av.it.:  19.9
      thresh= 5.990E-04 alpha_mix =  0.700 |ddv_scf|^2 =  1.792E-05

      iter #   3 total cpu time :  7355.4 secs   av.it.:  18.8
      thresh= 4.233E-04 alpha_mix =  0.700 |ddv_scf|^2 =  2.868E-08

      iter #   4 total cpu time :  7567.3 secs   av.it.:  19.8
      thresh= 1.693E-05 alpha_mix =  0.700 |ddv_scf|^2 =  9.292E-10

      iter #   5 total cpu time :  7774.8 secs   av.it.:  19.4
      thresh= 3.048E-06 alpha_mix =  0.700 |ddv_scf|^2 =  2.916E-11

      iter #   6 total cpu time :  7981.5 secs   av.it.:  19.1
      thresh= 5.400E-07 alpha_mix =  0.700 |ddv_scf|^2 =  1.226E-12

      iter #   7 total cpu time :  8188.0 secs   av.it.:  19.0
      thresh= 1.107E-07 alpha_mix =  0.700 |ddv_scf|^2 =  4.330E-14

     End of self-consistent calculation

     Convergence has been achieved 


     Representation #   5 modes #   6   7

     Self-consistent Calculation

      iter #   1 total cpu time :  8349.2 secs   av.it.:  14.0
      thresh= 1.000E-02 alpha_mix =  0.700 |ddv_scf|^2 =  1.134E-04

      iter #   2 total cpu time :  8565.5 secs   av.it.:  20.1
      thresh= 1.065E-03 alpha_mix =  0.700 |ddv_scf|^2 =  5.371E-05

      iter #   3 total cpu time :  8771.2 secs   av.it.:  19.0
      thresh= 7.329E-04 alpha_mix =  0.700 |ddv_scf|^2 =  1.697E-07

      iter #   4 total cpu time :  8986.8 secs   av.it.:  20.0
      thresh= 4.120E-05 alpha_mix =  0.700 |ddv_scf|^2 =  3.305E-09

      iter #   5 total cpu time :  9199.8 secs   av.it.:  19.9
      thresh= 5.749E-06 alpha_mix =  0.700 |ddv_scf|^2 =  1.069E-10

      iter #   6 total cpu time :  9409.9 secs   av.it.:  19.7
      thresh= 1.034E-06 alpha_mix =  0.700 |ddv_scf|^2 =  2.504E-12

      iter #   7 total cpu time :  9620.8 secs   av.it.:  19.8
      thresh= 1.582E-07 alpha_mix =  0.700 |ddv_scf|^2 =  9.915E-14

     End of self-consistent calculation

     Convergence has been achieved 


     Representation #   6 modes #   8   9

     Self-consistent Calculation

      iter #   1 total cpu time :  9761.5 secs   av.it.:  12.0
      thresh= 1.000E-02 alpha_mix =  0.700 |ddv_scf|^2 =  3.138E-05

      iter #   2 total cpu time :  9972.8 secs   av.it.:  19.8
      thresh= 5.601E-04 alpha_mix =  0.700 |ddv_scf|^2 =  1.687E-05

      iter #   3 total cpu time : 10176.4 secs   av.it.:  18.9
      thresh= 4.107E-04 alpha_mix =  0.700 |ddv_scf|^2 =  3.749E-08

      iter #   4 total cpu time : 10390.7 secs   av.it.:  20.1
      thresh= 1.936E-05 alpha_mix =  0.700 |ddv_scf|^2 =  1.973E-09

      iter #   5 total cpu time : 10585.9 secs   av.it.:  18.0
      thresh= 4.442E-06 alpha_mix =  0.700 |ddv_scf|^2 =  1.343E-11

      iter #   6 total cpu time : 10794.0 secs   av.it.:  19.5
      thresh= 3.665E-07 alpha_mix =  0.700 |ddv_scf|^2 =  1.347E-13

     End of self-consistent calculation

     Convergence has been achieved 

     Number of q in the star =    3
     List of q in the star:
          1   0.000000000  -1.000000000   0.000000000
          2   0.000000000   0.000000000  -1.000000000
          3   1.000000000   0.000000000   0.000000000

     Diagonalizing the dynamical matrix

     q = (    0.000000000  -1.000000000   0.000000000 ) 

 **************************************************************************
     freq (    1) =       2.981399 [THz] =      99.448754 [cm-1]
     freq (    2) =       3.288061 [THz] =     109.677896 [cm-1]
     freq (    3) =       3.288061 [THz] =     109.677896 [cm-1]
     freq (    4) =       7.053696 [THz] =     235.285987 [cm-1]
     freq (    5) =       7.074844 [THz] =     235.991397 [cm-1]
     freq (    6) =       7.074844 [THz] =     235.991397 [cm-1]
     freq (    7) =       8.341274 [THz] =     278.234958 [cm-1]
     freq (    8) =       8.341274 [THz] =     278.234958 [cm-1]
     freq (    9) =       8.414467 [THz] =     280.676406 [cm-1]
 **************************************************************************

     Mode symmetry, D_2d (-42m) point group:

     freq (   1-   1) =         99.4  [cm-1]   --> B_2  X_3  W_2      
     freq (   2-   3) =        109.7  [cm-1]   --> E    X_5  W_3      
     freq (   4-   4) =        235.3  [cm-1]   --> B_2  X_3  W_2      
     freq (   5-   6) =        236.0  [cm-1]   --> E    X_5  W_3      
     freq (   7-   8) =        278.2  [cm-1]   --> E    X_5  W_3      
     freq (   9-   9) =        280.7  [cm-1]   --> A_1  X_1  W_1      

     init_run     :      0.62s CPU      0.44s WALL (       1 calls)
     electrons    :    970.57s CPU    122.45s WALL (       1 calls)

     Called by init_run:
     wfcinit      :      0.00s CPU      0.00s WALL (       1 calls)
     potinit      :      0.01s CPU      0.01s WALL (       1 calls)
     hinit0       :      0.37s CPU      0.37s WALL (       1 calls)

     Called by electrons:
     c_bands      :    970.57s CPU    122.45s WALL (       1 calls)
     v_of_rho     :      0.02s CPU      0.02s WALL (       3 calls)
     newd         :      0.76s CPU      0.13s WALL (       3 calls)

     Called by c_bands:
     init_us_2    :    104.92s CPU     13.19s WALL (   14264 calls)
     cegterg      :    846.26s CPU    106.69s WALL (     326 calls)

     Called by *egterg:
     cdiaghg      :     88.53s CPU     10.40s WALL (    5252 calls)
     h_psi        :  71714.60s CPU   9130.34s WALL (  642615 calls)
     s_psi        :    709.35s CPU     83.56s WALL ( 1297866 calls)
     g_psi        :      8.32s CPU      0.94s WALL (    4926 calls)

     Called by h_psi:
     h_psi:calbec :   1025.16s CPU    134.24s WALL (  642615 calls)
     vloc_psi     :  70017.71s CPU   8915.20s WALL (  642615 calls)
     add_vuspsi   :    398.66s CPU     49.68s WALL (  642615 calls)

     General routines
     calbec       :   1750.56s CPU    219.00s WALL ( 1330989 calls)
     fft          :      8.65s CPU      1.16s WALL (    1815 calls)
     ffts         :     12.50s CPU      1.59s WALL (    2313 calls)
     fftw         :  70547.29s CPU   8999.73s WALL (16222778 calls)
     davcio       :     96.43s CPU     12.37s WALL (   80528 calls)

     Parallel routines

     PHONON       :     23h36m CPU      2h59m WALL

     INITIALIZATION: 
     phq_setup    :      0.18s CPU      0.04s WALL (       2 calls)
     phq_init     :    324.14s CPU     43.66s WALL (       2 calls)

     phq_init     :    324.14s CPU     43.66s WALL (       2 calls)
     set_drhoc    :      0.92s CPU      0.64s WALL (       4 calls)
     init_vloc    :      0.01s CPU      0.01s WALL (       3 calls)
     init_us_1    :      0.96s CPU      0.96s WALL (       3 calls)
     newd         :      0.76s CPU      0.13s WALL (       3 calls)
     dvanqq       :      0.95s CPU      0.48s WALL (       1 calls)
     drho         :    291.79s CPU     38.43s WALL (       1 calls)

     DYNAMICAL MATRIX:
     dynmat0      :     14.51s CPU      2.03s WALL (       1 calls)
     phqscf       :  83711.10s CPU  10627.03s WALL (       2 calls)
     dynmatrix    :      0.03s CPU      0.00s WALL (       2 calls)

     phqscf       :  83711.10s CPU  10627.03s WALL (       2 calls)
     solve_linter :  83618.08s CPU  10616.26s WALL (       9 calls)
     drhodv       :     92.87s CPU     10.76s WALL (       9 calls)

     dynmat0      :     14.51s CPU      2.03s WALL (       1 calls)
     dynmat_us    :     13.73s CPU      1.68s WALL (       1 calls)
     d2ionq       :      0.07s CPU      0.01s WALL (       1 calls)
     dynmatcc     :      0.71s CPU      0.35s WALL (       1 calls)

     dynmat_us    :     13.73s CPU      1.68s WALL (       1 calls)
     addusdynmat  :      0.00s CPU      0.00s WALL (       1 calls)

     phqscf       :  83711.10s CPU  10627.03s WALL (       2 calls)
     solve_linter :  83618.08s CPU  10616.26s WALL (       9 calls)

     solve_linter :  83618.08s CPU  10616.26s WALL (       9 calls)
     dvqpsi_us    :    560.77s CPU     72.01s WALL (    2223 calls)
     ortho        :    117.84s CPU     14.83s WALL (   18214 calls)
     cgsolve      :  75340.44s CPU   9541.30s WALL (   18214 calls)
     incdrhoscf   :   3860.15s CPU    498.05s WALL (   18214 calls)
     addusddens   :     45.24s CPU      8.51s WALL (      74 calls)
     vpsifft      :   3270.22s CPU    422.91s WALL (   15991 calls)
     dv_of_drho   :      8.07s CPU      1.04s WALL (     106 calls)
     mix_pot      :      1.44s CPU      0.20s WALL (      68 calls)
     psymdvscf    :      5.94s CPU      0.79s WALL (      68 calls)
     newdq        :     38.96s CPU      9.51s WALL (      68 calls)
     adddvscf     :    169.53s CPU     21.96s WALL (   15991 calls)
     drhodvus     :      0.06s CPU      0.01s WALL (       9 calls)

     dvqpsi_us    :    560.77s CPU     72.01s WALL (    2223 calls)
     dvqpsi_us_on :     91.59s CPU     11.57s WALL (    2223 calls)

     cgsolve      :  75340.44s CPU   9541.30s WALL (   18214 calls)
     ch_psi       :  74409.58s CPU   9436.05s WALL (  637037 calls)

     ch_psi       :  74409.58s CPU   9436.05s WALL (  637037 calls)
     h_psi        :  71714.60s CPU   9130.34s WALL (  642615 calls)
     last         :   2634.64s CPU    306.40s WALL (  637037 calls)

     h_psi        :  71714.60s CPU   9130.34s WALL (  642615 calls)
     add_vuspsi   :    398.66s CPU     49.68s WALL (  642615 calls)

     incdrhoscf   :   3860.15s CPU    498.05s WALL (   18214 calls)
     addusdbec    :     73.08s CPU      9.52s WALL (   19681 calls)

     drhodvus     :      0.06s CPU      0.01s WALL (       9 calls)

      General routines
     calbec       :   1750.56s CPU    219.00s WALL ( 1330989 calls)
     fft          :      8.65s CPU      1.16s WALL (    1815 calls)
     ffts         :     12.50s CPU      1.59s WALL (    2313 calls)
     fftw         :  70547.29s CPU   8999.73s WALL (16222778 calls)
     davcio       :     96.43s CPU     12.37s WALL (   80528 calls)
     write_rec    :      0.18s CPU      0.07s WALL (      77 calls)


     PHONON       :     23h36m CPU      2h59m WALL


   This run was terminated on:  18:27:25  27Nov2023            

=------------------------------------------------------------------------------=
   JOB DONE.
=------------------------------------------------------------------------------=
