
     Program PWSCF v.6.7MaX starts on 27Nov2023 at 12:28:12 

     This program is part of the open-source Quantum ESPRESSO suite
     for quantum simulation of materials; please cite
         "P. Giannozzi et al., J. Phys.:Condens. Matter 21 395502 (2009);
         "P. Giannozzi et al., J. Phys.:Condens. Matter 29 465901 (2017);
          URL http://www.quantum-espresso.org", 
     in publications or presentations arising from this work. More details at
     http://www.quantum-espresso.org/quote

     Parallel version (MPI), running on     1 processors

     MPI processes distributed on     1 nodes
     Waiting for input...
     Reading input from standard input
     Message from routine read_cards :
     DEPRECATED: no units specified in ATOMIC_POSITIONS card
     Message from routine read_cards :
     ATOMIC_POSITIONS: units set to alat

     Current dimensions of program PWSCF are:
     Max number of different atomic species (ntypx) = 10
     Max number of k-points (npk) =  40000
     Max angular momentum in pseudopotentials (lmaxx) =  3

     Subspace diagonalization in iterative solution of the eigenvalue problem:
     a serial algorithm will be used


     G-vector sticks info
     --------------------
     sticks:   dense  smooth     PW     G-vecs:    dense   smooth      PW
     Sum         511     511    163                 7799     7799    1459



     bravais-lattice index     =            2
     lattice parameter (alat)  =      11.2270  a.u.
     unit-cell volume          =     353.7783 (a.u.)^3
     number of atoms/cell      =            3
     number of atomic types    =            3
     number of electrons       =        44.00
     number of Kohn-Sham states=           22
     kinetic-energy cutoff     =      30.0000  Ry
     charge density cutoff     =     120.0000  Ry
     scf convergence threshold =      1.0E-06
     mixing beta               =       0.7000
     number of iterations used =            8  plain     mixing
     Exchange-correlation= SLA  PW   PBE  PBE
                           (   1   4   3   4   0   0   0)

     celldm(1)=  11.227000  celldm(2)=   0.000000  celldm(3)=   0.000000
     celldm(4)=   0.000000  celldm(5)=   0.000000  celldm(6)=   0.000000

     crystal axes: (cart. coord. in units of alat)
               a(1) = (  -0.500000   0.000000   0.500000 )  
               a(2) = (   0.000000   0.500000   0.500000 )  
               a(3) = (  -0.500000   0.500000   0.000000 )  

     reciprocal axes: (cart. coord. in units 2 pi/alat)
               b(1) = ( -1.000000 -1.000000  1.000000 )  
               b(2) = (  1.000000  1.000000  1.000000 )  
               b(3) = ( -1.000000  1.000000 -1.000000 )  


     PseudoPot. # 1 for Ti read from file:
     /home/user11/Downloads/lab-test/pseudo/ti_pbe_v1.4.uspp.F.UPF
     MD5 check sum: 88a00a6731bd790ddea75d31a80cb452
     Pseudo is Ultrasoft + core correction, Zval = 12.0
     Generated by new atomic code, or converted to UPF format
     Using radial grid of  851 points,  6 beta functions with: 
                l(1) =   0
                l(2) =   0
                l(3) =   1
                l(4) =   1
                l(5) =   2
                l(6) =   2
     Q(r) pseudized with  6 coefficients,  rinner =    1.000   1.000   1.000
                                                       1.000   1.000

     PseudoPot. # 2 for Ni read from file:
     /home/user11/Downloads/lab-test/pseudo/ni_pbe_v1.4.uspp.F.UPF
     MD5 check sum: 1ee80287db30b12d2bc1f57a5b5d6409
     Pseudo is Ultrasoft + core correction, Zval = 18.0
     Generated by new atomic code, or converted to UPF format
     Using radial grid of  865 points,  6 beta functions with: 
                l(1) =   0
                l(2) =   0
                l(3) =   1
                l(4) =   1
                l(5) =   2
                l(6) =   2
     Q(r) pseudized with 10 coefficients,  rinner =    0.980   0.980   0.980
                                                       0.980   0.980

     PseudoPot. # 3 for Sn read from file:
     /home/user11/Downloads/lab-test/pseudo/Sn_pbe_v1.uspp.F.UPF
     MD5 check sum: 4cf58ce39ec5d5d420df3dd08604eb00
     Pseudo is Ultrasoft + core correction, Zval = 14.0
     Generated by new atomic code, or converted to UPF format
     Using radial grid of  891 points,  6 beta functions with: 
                l(1) =   0
                l(2) =   0
                l(3) =   1
                l(4) =   1
                l(5) =   2
                l(6) =   2
     Q(r) pseudized with  6 coefficients,  rinner =    1.200   1.200   1.200
                                                       1.200   1.200

     atomic species   valence    mass     pseudopotential
        Ti            12.00    47.86700     Ti( 1.00)
        Ni            18.00    58.69354     Ni( 1.00)
        Sn            14.00   118.71000     Sn( 1.00)

     24 Sym. Ops. (no inversion) found



   Cartesian axes

     site n.     atom                  positions (alat units)
         1           Ti  tau(   1) = (   0.5000000   0.5000000   0.5000000  )
         2           Ni  tau(   2) = (   0.2500000   0.2500000   0.2500000  )
         3           Sn  tau(   3) = (   0.0000000   0.0000000   0.0000000  )

     number of k points=    72
                       cart. coord. in units 2pi/alat
        k(    1) = (   0.0000000   0.0000000   0.0000000), wk =   0.0011574
        k(    2) = (  -0.0833333   0.0833333  -0.0833333), wk =   0.0092593
        k(    3) = (  -0.1666667   0.1666667  -0.1666667), wk =   0.0092593
        k(    4) = (  -0.2500000   0.2500000  -0.2500000), wk =   0.0092593
        k(    5) = (  -0.3333333   0.3333333  -0.3333333), wk =   0.0092593
        k(    6) = (  -0.4166667   0.4166667  -0.4166667), wk =   0.0092593
        k(    7) = (   0.5000000  -0.5000000   0.5000000), wk =   0.0046296
        k(    8) = (   0.0000000   0.1666667   0.0000000), wk =   0.0069444
        k(    9) = (  -0.0833333   0.2500000  -0.0833333), wk =   0.0277778
        k(   10) = (  -0.1666667   0.3333333  -0.1666667), wk =   0.0277778
        k(   11) = (  -0.2500000   0.4166667  -0.2500000), wk =   0.0277778
        k(   12) = (  -0.3333333   0.5000000  -0.3333333), wk =   0.0277778
        k(   13) = (   0.5833333  -0.4166667   0.5833333), wk =   0.0277778
        k(   14) = (   0.5000000  -0.3333333   0.5000000), wk =   0.0277778
        k(   15) = (   0.4166667  -0.2500000   0.4166667), wk =   0.0277778
        k(   16) = (   0.3333333  -0.1666667   0.3333333), wk =   0.0277778
        k(   17) = (   0.2500000  -0.0833333   0.2500000), wk =   0.0277778
        k(   18) = (   0.1666667  -0.0000000   0.1666667), wk =   0.0138889
        k(   19) = (   0.0000000   0.3333333   0.0000000), wk =   0.0069444
        k(   20) = (  -0.0833333   0.4166667  -0.0833333), wk =   0.0277778
        k(   21) = (  -0.1666667   0.5000000  -0.1666667), wk =   0.0277778
        k(   22) = (  -0.2500000   0.5833333  -0.2500000), wk =   0.0277778
        k(   23) = (   0.6666667  -0.3333333   0.6666667), wk =   0.0277778
        k(   24) = (   0.5833333  -0.2500000   0.5833333), wk =   0.0277778
        k(   25) = (   0.5000000  -0.1666667   0.5000000), wk =   0.0277778
        k(   26) = (   0.4166667  -0.0833333   0.4166667), wk =   0.0277778
        k(   27) = (   0.3333333   0.0000000   0.3333333), wk =   0.0138889
        k(   28) = (   0.0000000   0.5000000   0.0000000), wk =   0.0069444
        k(   29) = (  -0.0833333   0.5833333  -0.0833333), wk =   0.0277778
        k(   30) = (  -0.1666667   0.6666667  -0.1666667), wk =   0.0277778
        k(   31) = (   0.7500000  -0.2500000   0.7500000), wk =   0.0277778
        k(   32) = (   0.6666667  -0.1666667   0.6666667), wk =   0.0277778
        k(   33) = (   0.5833333  -0.0833333   0.5833333), wk =   0.0277778
        k(   34) = (   0.5000000   0.0000000   0.5000000), wk =   0.0138889
        k(   35) = (   0.0000000   0.6666667   0.0000000), wk =   0.0069444
        k(   36) = (  -0.0833333   0.7500000  -0.0833333), wk =   0.0277778
        k(   37) = (   0.8333333  -0.1666667   0.8333333), wk =   0.0277778
        k(   38) = (   0.7500000  -0.0833333   0.7500000), wk =   0.0277778
        k(   39) = (   0.6666667  -0.0000000   0.6666667), wk =   0.0138889
        k(   40) = (   0.0000000   0.8333333   0.0000000), wk =   0.0069444
        k(   41) = (   0.9166667  -0.0833333   0.9166667), wk =   0.0277778
        k(   42) = (   0.8333333   0.0000000   0.8333333), wk =   0.0138889
        k(   43) = (   0.0000000  -1.0000000   0.0000000), wk =   0.0034722
        k(   44) = (  -0.1666667   0.3333333   0.0000000), wk =   0.0277778
        k(   45) = (  -0.2500000   0.4166667  -0.0833333), wk =   0.0555556
        k(   46) = (  -0.3333333   0.5000000  -0.1666667), wk =   0.0555556
        k(   47) = (   0.5833333  -0.4166667   0.7500000), wk =   0.0555556
        k(   48) = (   0.5000000  -0.3333333   0.6666667), wk =   0.0277778
        k(   49) = (  -0.1666667   0.5000000   0.0000000), wk =   0.0277778
        k(   50) = (  -0.2500000   0.5833333  -0.0833333), wk =   0.0555556
        k(   51) = (   0.6666667  -0.3333333   0.8333333), wk =   0.0555556
        k(   52) = (   0.5833333  -0.2500000   0.7500000), wk =   0.0555556
        k(   53) = (   0.5000000  -0.1666667   0.6666667), wk =   0.0555556
        k(   54) = (   0.4166667  -0.0833333   0.5833333), wk =   0.0555556
        k(   55) = (   0.3333333   0.0000000   0.5000000), wk =   0.0277778
        k(   56) = (  -0.1666667   0.6666667  -0.0000000), wk =   0.0277778
        k(   57) = (   0.7500000  -0.2500000   0.9166667), wk =   0.0555556
        k(   58) = (   0.6666667  -0.1666667   0.8333333), wk =   0.0555556
        k(   59) = (   0.5833333  -0.0833333   0.7500000), wk =   0.0555556
        k(   60) = (   0.5000000   0.0000000   0.6666667), wk =   0.0277778
        k(   61) = (   0.8333333  -0.1666667   1.0000000), wk =   0.0277778
        k(   62) = (   0.7500000  -0.0833333   0.9166667), wk =   0.0555556
        k(   63) = (   0.6666667   0.0000000   0.8333333), wk =   0.0277778
        k(   64) = (  -0.1666667  -1.0000000  -0.0000000), wk =   0.0138889
        k(   65) = (   0.6666667  -0.3333333   1.0000000), wk =   0.0277778
        k(   66) = (   0.5833333  -0.2500000   0.9166667), wk =   0.0555556
        k(   67) = (   0.5000000  -0.1666667   0.8333333), wk =   0.0277778
        k(   68) = (   0.6666667  -0.1666667   1.0000000), wk =   0.0277778
        k(   69) = (   0.5833333  -0.0833333   0.9166667), wk =   0.0555556
        k(   70) = (   0.5000000   0.0000000   0.8333333), wk =   0.0277778
        k(   71) = (  -0.3333333  -1.0000000   0.0000000), wk =   0.0138889
        k(   72) = (  -0.5000000  -1.0000000   0.0000000), wk =   0.0069444

     Dense  grid:     7799 G-vectors     FFT dimensions: (  27,  27,  27)

     Estimated max dynamical RAM per process >      54.84 MB

     Check: negative core charge=   -0.000297

     Initial potential from superposition of free atoms

     starting charge   39.99991, renormalised to   44.00000
     Starting wfcs are   32 randomized atomic wfcs

     total cpu time spent up to now is        4.3 secs

     Self-consistent Calculation

     iteration #  1     ecut=    30.00 Ry     beta= 0.70
     Davidson diagonalization with overlap
     ethr =  1.00E-02,  avg # of iterations =  3.7

     total cpu time spent up to now is       12.5 secs

     total energy              =    -577.61922856 Ry
     estimated scf accuracy    <      68.71939858 Ry

     iteration #  2     ecut=    30.00 Ry     beta= 0.70
     Davidson diagonalization with overlap
     ethr =  1.00E-02,  avg # of iterations =  6.9

     total cpu time spent up to now is       24.5 secs

     total energy              =    -611.37313089 Ry
     estimated scf accuracy    <     179.18406231 Ry

     iteration #  3     ecut=    30.00 Ry     beta= 0.70
     Davidson diagonalization with overlap
     ethr =  1.00E-02,  avg # of iterations =  4.5

     total cpu time spent up to now is       35.6 secs

     total energy              =    -626.52031731 Ry
     estimated scf accuracy    <      23.08955301 Ry

     iteration #  4     ecut=    30.00 Ry     beta= 0.70
     Davidson diagonalization with overlap
     ethr =  1.00E-02,  avg # of iterations =  2.0

     total cpu time spent up to now is       44.4 secs

     total energy              =    -625.22147350 Ry
     estimated scf accuracy    <       7.99439784 Ry

     iteration #  5     ecut=    30.00 Ry     beta= 0.70
     Davidson diagonalization with overlap
     ethr =  1.00E-02,  avg # of iterations =  2.2

     total cpu time spent up to now is       52.1 secs

     total energy              =    -625.48613249 Ry
     estimated scf accuracy    <       1.64423138 Ry

     iteration #  6     ecut=    30.00 Ry     beta= 0.70
     Davidson diagonalization with overlap
     ethr =  3.74E-03,  avg # of iterations =  4.3

     total cpu time spent up to now is       61.2 secs

     total energy              =    -625.71560447 Ry
     estimated scf accuracy    <       0.12090219 Ry

     iteration #  7     ecut=    30.00 Ry     beta= 0.70
     Davidson diagonalization with overlap
     ethr =  2.75E-04,  avg # of iterations =  5.6

     total cpu time spent up to now is       71.2 secs

     total energy              =    -625.62538761 Ry
     estimated scf accuracy    <       2.44547372 Ry

     iteration #  8     ecut=    30.00 Ry     beta= 0.70
     Davidson diagonalization with overlap
     ethr =  2.75E-04,  avg # of iterations =  5.6

     total cpu time spent up to now is       80.4 secs

     total energy              =    -625.58576840 Ry
     estimated scf accuracy    <       0.32228449 Ry

     iteration #  9     ecut=    30.00 Ry     beta= 0.70
     Davidson diagonalization with overlap
     ethr =  2.75E-04,  avg # of iterations = 11.2

     total cpu time spent up to now is       93.1 secs

     total energy              =    -624.75295549 Ry
     estimated scf accuracy    <      14.26594593 Ry

     iteration # 10     ecut=    30.00 Ry     beta= 0.70
     Davidson diagonalization with overlap
     ethr =  2.75E-04,  avg # of iterations =  6.8

     total cpu time spent up to now is      104.8 secs

     total energy              =    -625.72866185 Ry
     estimated scf accuracy    <       0.30531626 Ry

     iteration # 11     ecut=    30.00 Ry     beta= 0.70
     Davidson diagonalization with overlap
     ethr =  2.75E-04,  avg # of iterations =  2.3

     total cpu time spent up to now is      112.7 secs

     total energy              =    -625.72873791 Ry
     estimated scf accuracy    <       0.11616376 Ry

     iteration # 12     ecut=    30.00 Ry     beta= 0.70
     Davidson diagonalization with overlap
     ethr =  2.64E-04,  avg # of iterations =  1.7

     total cpu time spent up to now is      120.1 secs

     total energy              =    -625.73246384 Ry
     estimated scf accuracy    <       0.04643168 Ry

     iteration # 13     ecut=    30.00 Ry     beta= 0.70
     Davidson diagonalization with overlap
     ethr =  1.06E-04,  avg # of iterations =  2.5

     total cpu time spent up to now is      128.6 secs

     total energy              =    -625.73354479 Ry
     estimated scf accuracy    <       0.02686942 Ry

     iteration # 14     ecut=    30.00 Ry     beta= 0.70
     Davidson diagonalization with overlap
     ethr =  6.11E-05,  avg # of iterations =  3.4

     total cpu time spent up to now is      134.9 secs

     total energy              =    -625.73504809 Ry
     estimated scf accuracy    <       0.00403553 Ry

     iteration # 15     ecut=    30.00 Ry     beta= 0.70
     Davidson diagonalization with overlap
     ethr =  9.17E-06,  avg # of iterations =  5.0

     total cpu time spent up to now is      143.0 secs

     total energy              =    -625.73697883 Ry
     estimated scf accuracy    <       0.00442691 Ry

     iteration # 16     ecut=    30.00 Ry     beta= 0.70
     Davidson diagonalization with overlap
     ethr =  9.17E-06,  avg # of iterations =  1.1

     total cpu time spent up to now is      148.5 secs

     total energy              =    -625.73610619 Ry
     estimated scf accuracy    <       0.00600173 Ry

     iteration # 17     ecut=    30.00 Ry     beta= 0.70
     Davidson diagonalization with overlap
     ethr =  9.17E-06,  avg # of iterations =  2.1

     total cpu time spent up to now is      155.4 secs

     total energy              =    -625.73674544 Ry
     estimated scf accuracy    <       0.00195474 Ry

     iteration # 18     ecut=    30.00 Ry     beta= 0.70
     Davidson diagonalization with overlap
     ethr =  4.44E-06,  avg # of iterations =  1.3

     total cpu time spent up to now is      161.0 secs

     total energy              =    -625.73642560 Ry
     estimated scf accuracy    <       0.00339088 Ry

     iteration # 19     ecut=    30.00 Ry     beta= 0.70
     Davidson diagonalization with overlap
     ethr =  4.44E-06,  avg # of iterations =  1.1

     total cpu time spent up to now is      166.8 secs

     total energy              =    -625.73621885 Ry
     estimated scf accuracy    <       0.00232209 Ry

     iteration # 20     ecut=    30.00 Ry     beta= 0.70
     Davidson diagonalization with overlap
     ethr =  4.44E-06,  avg # of iterations =  2.8

     total cpu time spent up to now is      173.0 secs

     total energy              =    -625.73647304 Ry
     estimated scf accuracy    <       0.00046271 Ry

     iteration # 21     ecut=    30.00 Ry     beta= 0.70
     Davidson diagonalization with overlap
     ethr =  1.05E-06,  avg # of iterations =  3.1

     total cpu time spent up to now is      179.2 secs

     total energy              =    -625.73670698 Ry
     estimated scf accuracy    <       0.00104129 Ry

     iteration # 22     ecut=    30.00 Ry     beta= 0.70
     Davidson diagonalization with overlap
     ethr =  1.05E-06,  avg # of iterations =  4.9

     total cpu time spent up to now is      188.1 secs

     total energy              =    -625.74082538 Ry
     estimated scf accuracy    <       0.00593200 Ry

     iteration # 23     ecut=    30.00 Ry     beta= 0.70
     Davidson diagonalization with overlap
     ethr =  1.05E-06,  avg # of iterations =  8.3

     total cpu time spent up to now is      201.1 secs

     total energy              =    -625.73820869 Ry
     estimated scf accuracy    <       0.18173192 Ry

     iteration # 24     ecut=    30.00 Ry     beta= 0.70
     Davidson diagonalization with overlap
     ethr =  1.05E-06,  avg # of iterations =  8.1

     total cpu time spent up to now is      216.5 secs

     total energy              =    -625.73658787 Ry
     estimated scf accuracy    <       0.06144259 Ry

     iteration # 25     ecut=    30.00 Ry     beta= 0.70
     Davidson diagonalization with overlap
     ethr =  1.05E-06,  avg # of iterations =  7.2

     total cpu time spent up to now is      229.3 secs

     total energy              =    -625.73738485 Ry
     estimated scf accuracy    <       0.01738452 Ry

     iteration # 26     ecut=    30.00 Ry     beta= 0.70
     Davidson diagonalization with overlap
     ethr =  1.05E-06,  avg # of iterations =  1.0

     total cpu time spent up to now is      235.7 secs

     total energy              =    -625.73699760 Ry
     estimated scf accuracy    <       0.01698558 Ry

     iteration # 27     ecut=    30.00 Ry     beta= 0.70
     Davidson diagonalization with overlap
     ethr =  1.05E-06,  avg # of iterations =  4.0

     total cpu time spent up to now is      243.0 secs

     total energy              =    -625.73645157 Ry
     estimated scf accuracy    <       0.01179758 Ry

     iteration # 28     ecut=    30.00 Ry     beta= 0.70
     Davidson diagonalization with overlap
     ethr =  1.05E-06,  avg # of iterations =  4.9

     total cpu time spent up to now is      251.0 secs

     total energy              =    -625.73620637 Ry
     estimated scf accuracy    <       0.00351167 Ry

     iteration # 29     ecut=    30.00 Ry     beta= 0.70
     Davidson diagonalization with overlap
     ethr =  1.05E-06,  avg # of iterations =  5.0

     total cpu time spent up to now is      260.4 secs

     total energy              =    -625.73637823 Ry
     estimated scf accuracy    <       0.00007633 Ry

     iteration # 30     ecut=    30.00 Ry     beta= 0.70
     Davidson diagonalization with overlap
     ethr =  1.73E-07,  avg # of iterations =  2.2

     total cpu time spent up to now is      270.6 secs

     total energy              =    -625.73637886 Ry
     estimated scf accuracy    <       0.00001643 Ry

     iteration # 31     ecut=    30.00 Ry     beta= 0.70
     Davidson diagonalization with overlap
     ethr =  3.73E-08,  avg # of iterations =  5.1

     total cpu time spent up to now is      282.4 secs

     total energy              =    -625.73638334 Ry
     estimated scf accuracy    <       0.00002642 Ry

     iteration # 32     ecut=    30.00 Ry     beta= 0.70
     Davidson diagonalization with overlap
     ethr =  3.73E-08,  avg # of iterations =  1.6

     total cpu time spent up to now is      288.4 secs

     total energy              =    -625.73638149 Ry
     estimated scf accuracy    <       0.00001149 Ry

     iteration # 33     ecut=    30.00 Ry     beta= 0.70
     Davidson diagonalization with overlap
     ethr =  2.61E-08,  avg # of iterations =  4.7

     total cpu time spent up to now is      295.7 secs

     total energy              =    -625.73638346 Ry
     estimated scf accuracy    <       0.00000667 Ry

     iteration # 34     ecut=    30.00 Ry     beta= 0.70
     Davidson diagonalization with overlap
     ethr =  1.52E-08,  avg # of iterations =  2.0

     total cpu time spent up to now is      301.6 secs

     total energy              =    -625.73638354 Ry
     estimated scf accuracy    <       0.00000196 Ry

     iteration # 35     ecut=    30.00 Ry     beta= 0.70
     Davidson diagonalization with overlap
     ethr =  4.46E-09,  avg # of iterations =  4.3

     total cpu time spent up to now is      308.7 secs

     End of self-consistent calculation

          k = 0.0000 0.0000 0.0000 (   941 PWs)   bands (ev):

   -90.0890 -50.3902 -50.3902 -50.3902 -43.5118 -19.7615 -19.7615 -19.7615
    -7.0686  -7.0686  -7.0638  -7.0638  -7.0638   3.8163  10.9682  10.9682
    10.9682  11.3882  11.3882  13.4654  13.4654  13.4654

          k =-0.0833 0.0833-0.0833 (   950 PWs)   bands (ev):

   -90.0904 -50.3950 -50.3935 -50.3935 -43.5118 -19.7626 -19.7617 -19.7617
    -7.0677  -7.0677  -7.0636  -7.0628  -7.0628   3.9046  10.9161  10.9213
    10.9213  11.4182  11.4182  13.2379  13.4400  13.4400

          k =-0.1667 0.1667-0.1667 (   968 PWs)   bands (ev):

   -90.0929 -50.4120 -50.3961 -50.3961 -43.5118 -19.7654 -19.7623 -19.7623
    -7.0660  -7.0660  -7.0632  -7.0595  -7.0595   4.1649  10.7387  10.8401
    10.8401  11.4680  11.4680  12.6335  13.3612  13.3612

          k =-0.2500 0.2500-0.2500 (   968 PWs)   bands (ev):

   -90.0925 -50.4012 -50.3998 -50.3998 -43.5114 -19.7692 -19.7631 -19.7631
    -7.0642  -7.0642  -7.0624  -7.0543  -7.0543   4.5809  10.3732  10.7671
    10.7671  11.5119  11.5119  11.9975  13.2478  13.2478

          k =-0.3333 0.3333-0.3333 (   968 PWs)   bands (ev):

   -90.0920 -50.4047 -50.3964 -50.3964 -43.5110 -19.7730 -19.7638 -19.7638
    -7.0627  -7.0627  -7.0616  -7.0488  -7.0488   5.1141   9.6559  10.7288
    10.7288  11.5177  11.5177  11.6408  13.1465  13.1465

          k =-0.4167 0.4167-0.4167 (   978 PWs)   bands (ev):

   -90.0935 -50.4070 -50.4015 -50.4015 -43.5109 -19.7758 -19.7644 -19.7644
    -7.0617  -7.0617  -7.0610  -7.0447  -7.0447   5.6626   8.8894  10.7016
    10.7016  11.4680  11.4680  11.5418  13.0767  13.0767

          k = 0.5000-0.5000 0.5000 (   978 PWs)   bands (ev):

   -90.0936 -50.4122 -50.3996 -50.3996 -43.5108 -19.7768 -19.7646 -19.7646
    -7.0613  -7.0613  -7.0608  -7.0433  -7.0433   5.9407   8.5224  10.7007
    10.7007  11.4459  11.4459  11.5123  13.0614  13.0614

          k = 0.0000 0.1667 0.0000 (   953 PWs)   bands (ev):

   -90.0908 -50.3957 -50.3957 -50.3944 -43.5118 -19.7628 -19.7618 -19.7618
    -7.0676  -7.0673  -7.0646  -7.0620  -7.0620   3.9337  10.7819  10.9739
    10.9739  11.4059  11.4350  13.2849  13.3771  13.3771

          k =-0.0833 0.2500-0.0833 (   967 PWs)   bands (ev):

   -90.0928 -50.4074 -50.4001 -50.3954 -43.5118 -19.7649 -19.7623 -19.7623
    -7.0662  -7.0661  -7.0644  -7.0597  -7.0592   4.1356  10.6110  10.9332
    10.9430  11.4405  11.4753  12.8440  13.2803  13.3315

          k =-0.1667 0.3333-0.1667 (   967 PWs)   bands (ev):

   -90.0924 -50.4044 -50.4005 -50.3949 -43.5115 -19.7682 -19.7631 -19.7630
    -7.0652  -7.0645  -7.0626  -7.0560  -7.0545   4.4980  10.3680  10.8291
    10.8993  11.5009  11.5186  12.1967  13.1783  13.2256

          k =-0.2500 0.4167-0.2500 (   974 PWs)   bands (ev):

   -90.0932 -50.4080 -50.4024 -50.3967 -43.5112 -19.7718 -19.7639 -19.7638
    -7.0641  -7.0628  -7.0611  -7.0515  -7.0492   4.9911   9.8775  10.6904
    10.8422  11.5000  11.5173  11.7421  13.0942  13.0982

          k =-0.3333 0.5000-0.3333 (   976 PWs)   bands (ev):

   -90.0931 -50.4089 -50.4002 -50.3977 -43.5109 -19.7748 -19.7647 -19.7644
    -7.0630  -7.0613  -7.0602  -7.0474  -7.0451   5.5410   9.1600  10.6309
    10.7892  11.4855  11.4955  11.5671  13.0071  13.0434

          k = 0.5833-0.4167 0.5833 (   986 PWs)   bands (ev):

   -90.0950 -50.4102 -50.4062 -50.4056 -43.5109 -19.7763 -19.7651 -19.7647
    -7.0623  -7.0605  -7.0599  -7.0449  -7.0433   5.9418   8.6392  10.6231
    10.7298  11.4608  11.4681  11.5129  12.9482  13.0177

          k = 0.5000-0.3333 0.5000 (   984 PWs)   bands (ev):

   -90.0945 -50.4098 -50.4055 -50.4032 -43.5109 -19.7760 -19.7651 -19.7646
    -7.0624  -7.0602  -7.0602  -7.0448  -7.0444   5.8481   8.7604  10.6715
    10.6820  11.4466  11.4874  11.5297  12.9378  13.0430

          k = 0.4167-0.2500 0.4167 (   979 PWs)   bands (ev):

   -90.0937 -50.4145 -50.4015 -50.3961 -43.5110 -19.7739 -19.7646 -19.7641
    -7.0632  -7.0610  -7.0607  -7.0482  -7.0470   5.3606   9.4060  10.6681
    10.7540  11.4496  11.5419  11.5951  12.9475  13.1170

          k = 0.3333-0.1667 0.3333 (   971 PWs)   bands (ev):

   -90.0928 -50.4065 -50.4000 -50.3972 -43.5113 -19.7706 -19.7639 -19.7634
    -7.0645  -7.0621  -7.0619  -7.0535  -7.0510   4.8162  10.1119  10.6806
    10.8573  11.4757  11.5549  11.8584  12.9903  13.2345

          k = 0.2500-0.0833 0.2500 (   972 PWs)   bands (ev):

   -90.0935 -50.4075 -50.4014 -50.3994 -43.5116 -19.7670 -19.7630 -19.7626
    -7.0658  -7.0636  -7.0633  -7.0587  -7.0558   4.3613  10.5426  10.7304
    10.9509  11.4615  11.5174  12.3996  13.0844  13.3654

          k = 0.1667-0.0000 0.1667 (   965 PWs)   bands (ev):

   -90.0926 -50.4093 -50.3967 -50.3952 -43.5118 -19.7641 -19.7622 -19.7620
    -7.0670  -7.0660  -7.0638  -7.0619  -7.0601   4.0499  10.7670  10.8282
    10.9637  11.4257  11.4668  12.9741  13.2552  13.4438

          k = 0.0000 0.3333 0.0000 (   974 PWs)   bands (ev):

   -90.0940 -50.4047 -50.4047 -50.4031 -43.5117 -19.7660 -19.7627 -19.7627
    -7.0678  -7.0650  -7.0640  -7.0573  -7.0573   4.2751  10.3938  10.9995
    10.9995  11.4630  11.4727  12.8352  13.1668  13.1668

          k =-0.0833 0.4167-0.0833 (   980 PWs)   bands (ev):

   -90.0948 -50.4086 -50.4079 -50.4025 -43.5116 -19.7684 -19.7634 -19.7633
    -7.0685  -7.0633  -7.0630  -7.0542  -7.0535   4.5740  10.1649  10.9849
    11.0089  11.4712  11.4964  12.3951  13.0613  13.0634

          k =-0.1667 0.5000-0.1667 (   981 PWs)   bands (ev):

   -90.0945 -50.4099 -50.4057 -50.4017 -43.5112 -19.7712 -19.7644 -19.7641
    -7.0677  -7.0618  -7.0614  -7.0513  -7.0489   5.0075   9.8739  10.8287
    10.9788  11.4791  11.5297  11.8969  12.9224  12.9905

          k =-0.2500 0.5833-0.2500 (   990 PWs)   bands (ev):

   -90.0957 -50.4164 -50.4072 -50.4045 -43.5111 -19.7736 -19.7655 -19.7647
    -7.0662  -7.0603  -7.0597  -7.0492  -7.0452   5.5174   9.4188  10.5962
    10.9181  11.4671  11.5086  11.6331  12.7922  12.9494

          k = 0.6667-0.3333 0.6667 (   992 PWs)   bands (ev):

   -90.0960 -50.4134 -50.4094 -50.4072 -43.5109 -19.7751 -19.7664 -19.7650
    -7.0650  -7.0588  -7.0583  -7.0480  -7.0434   5.9597   8.9364  10.4830
    10.8258  11.4613  11.4967  11.5631  12.7012  12.9288

          k = 0.5833-0.2500 0.5833 (   982 PWs)   bands (ev):

   -90.0942 -50.4066 -50.4055 -50.4037 -43.5107 -19.7752 -19.7667 -19.7649
    -7.0646  -7.0580  -7.0575  -7.0476  -7.0442   6.0459   8.8465  10.4950
    10.7365  11.4592  11.5406  11.5712  12.6465  12.9436

          k = 0.5000-0.1667 0.5000 (   975 PWs)   bands (ev):

   -90.0929 -50.4074 -50.4005 -50.3977 -43.5108 -19.7740 -19.7664 -19.7646
    -7.0646  -7.0588  -7.0574  -7.0479  -7.0476   5.6911   9.2705  10.6097
    10.6717  11.4486  11.5919  11.6205  12.6065  13.0129

          k = 0.4167-0.0833 0.4167 (   979 PWs)   bands (ev):

   -90.0939 -50.4108 -50.4039 -50.3984 -43.5111 -19.7719 -19.7654 -19.7639
    -7.0649  -7.0608  -7.0581  -7.0524  -7.0492   5.1805   9.8359  10.6344
    10.8077  11.4317  11.5903  11.7910  12.5868  13.1321

          k = 0.3333 0.0000 0.3333 (   975 PWs)   bands (ev):

   -90.0936 -50.4067 -50.4046 -50.3985 -43.5114 -19.7693 -19.7642 -19.7632
    -7.0653  -7.0626  -7.0601  -7.0567  -7.0519   4.7109  10.2538  10.6607
    10.9616  11.4505  11.5726  12.1120  12.7107  13.2749

          k = 0.0000 0.5000 0.0000 (   982 PWs)   bands (ev):

   -90.0950 -50.4092 -50.4058 -50.4058 -43.5114 -19.7698 -19.7639 -19.7639
    -7.0713  -7.0637  -7.0614  -7.0509  -7.0509   4.8026   9.9360  11.0900
    11.0900  11.4078  11.5531  12.3391  12.9503  12.9503

          k =-0.0833 0.5833-0.0833 (   988 PWs)   bands (ev):

   -90.0955 -50.4118 -50.4080 -50.4062 -43.5112 -19.7717 -19.7647 -19.7645
    -7.0721  -7.0643  -7.0595  -7.0480  -7.0473   5.1614   9.7060  11.0377
    11.1036  11.3969  11.5872  12.0112  12.8067  12.8770

          k =-0.1667 0.6667-0.1667 (   986 PWs)   bands (ev):

   -90.0949 -50.4132 -50.4063 -50.4022 -43.5109 -19.7732 -19.7660 -19.7651
    -7.0707  -7.0642  -7.0576  -7.0466  -7.0442   5.6014   9.4726  10.7670
    11.0805  11.4482  11.5816  11.7063  12.6132  12.8445

          k = 0.7500-0.2500 0.7500 (   986 PWs)   bands (ev):

   -90.0948 -50.4103 -50.4066 -50.4042 -43.5107 -19.7740 -19.7675 -19.7654
    -7.0689  -7.0622  -7.0559  -7.0471  -7.0428   6.0160   9.2335  10.4363
    10.9840  11.4433  11.5743  11.6181  12.4507  12.8262

          k = 0.6667-0.1667 0.6667 (   983 PWs)   bands (ev):

   -90.0944 -50.4071 -50.4070 -50.4034 -43.5106 -19.7738 -19.7687 -19.7654
    -7.0678  -7.0581  -7.0546  -7.0493  -7.0437   6.2081   9.1287  10.2430
    10.8578  11.4145  11.5955  11.6548  12.3429  12.8290

          k = 0.5833-0.0833 0.5833 (   989 PWs)   bands (ev):

   -90.0955 -50.4115 -50.4098 -50.4050 -43.5108 -19.7733 -19.7687 -19.7651
    -7.0668  -7.0553  -7.0539  -7.0513  -7.0467   6.0316   9.2969  10.2707
    10.7325  11.4175  11.6133  11.6806  12.2781  12.8787

          k = 0.5000 0.0000 0.5000 (   983 PWs)   bands (ev):

   -90.0945 -50.4110 -50.4073 -50.3997 -43.5109 -19.7728 -19.7673 -19.7646
    -7.0658  -7.0579  -7.0547  -7.0504  -7.0497   5.6225   9.5738  10.5284
    10.6595  11.4299  11.6215  11.7340  12.3258  12.9945

          k = 0.0000 0.6667 0.0000 (  1002 PWs)   bands (ev):

   -90.0978 -50.4226 -50.4111 -50.4111 -43.5112 -19.7730 -19.7650 -19.7650
    -7.0749  -7.0670  -7.0578  -7.0447  -7.0447   5.4328   9.5058  11.1833
    11.1833  11.2516  11.6339  11.9033  12.7996  12.7996

          k =-0.0833 0.7500-0.0833 (   990 PWs)   bands (ev):

   -90.0957 -50.4125 -50.4085 -50.4071 -43.5108 -19.7740 -19.7659 -19.7655
    -7.0751  -7.0686  -7.0562  -7.0429  -7.0423   5.7765   9.3509  11.0142
    11.2098  11.3682  11.6668  11.6691  12.6349  12.7661

          k = 0.8333-0.1667 0.8333 (   987 PWs)   bands (ev):

   -90.0951 -50.4103 -50.4068 -50.4061 -43.5107 -19.7742 -19.7674 -19.7658
    -7.0731  -7.0682  -7.0546  -7.0432  -7.0412   6.1084   9.2827  10.6534
    11.1488  11.4075  11.5640  11.6605  12.3740  12.7446

          k = 0.7500-0.0833 0.7500 (   983 PWs)   bands (ev):

   -90.0944 -50.4082 -50.4068 -50.4025 -43.5105 -19.7733 -19.7694 -19.7658
    -7.0711  -7.0642  -7.0532  -7.0458  -7.0421   6.3058   9.3549  10.1985
    11.0245  11.3462  11.6659  11.6672  12.1809  12.7389

          k = 0.6667-0.0000 0.6667 (   981 PWs)   bands (ev):

   -90.0942 -50.4086 -50.4046 -50.4027 -43.5106 -19.7722 -19.7706 -19.7655
    -7.0692  -7.0580  -7.0525  -7.0498  -7.0445   6.2733   9.4309   9.9866
    10.8686  11.3726  11.6576  11.7307  12.1316  12.7807

          k = 0.0000 0.8333 0.0000 (   990 PWs)   bands (ev):

   -90.0958 -50.4111 -50.4088 -50.4088 -43.5107 -19.7749 -19.7659 -19.7659
    -7.0774  -7.0716  -7.0551  -7.0403  -7.0403   5.9999   9.2168  11.1657
    11.2752  11.2752  11.5210  11.7264  12.7366  12.7366

          k = 0.9167-0.0833 0.9167 (   986 PWs)   bands (ev):

   -90.0951 -50.4095 -50.4081 -50.4056 -43.5106 -19.7751 -19.7666 -19.7661
    -7.0767  -7.0725  -7.0542  -7.0399  -7.0394   6.2021   9.1733  10.9706
    11.2707  11.3625  11.4255  11.7241  12.5643  12.7194

          k = 0.8333 0.0000 0.8333 (   985 PWs)   bands (ev):

   -90.0948 -50.4099 -50.4061 -50.4050 -43.5105 -19.7743 -19.7680 -19.7660
    -7.0740  -7.0701  -7.0534  -7.0420  -7.0403   6.3122   9.2616  10.5797
    11.1695  11.3231  11.5650  11.7011  12.2884  12.7032

          k = 0.0000-1.0000 0.0000 (   982 PWs)   bands (ev):

   -90.0947 -50.4081 -50.4081 -50.4031 -43.5105 -19.7755 -19.7662 -19.7662
    -7.0782  -7.0739  -7.0542  -7.0387  -7.0387   6.2431   9.1142  11.1482
    11.3167  11.3167  11.3373  11.7503  12.7269  12.7269

          k =-0.1667 0.3333 0.0000 (   964 PWs)   bands (ev):

   -90.0920 -50.4035 -50.4010 -50.3921 -43.5115 -19.7670 -19.7631 -19.7628
    -7.0661  -7.0651  -7.0628  -7.0576  -7.0554   4.3874  10.4035  10.8614
    11.0168  11.4675  11.5242  12.5227  13.0015  13.3016

          k =-0.2500 0.4167-0.0833 (   974 PWs)   bands (ev):

   -90.0933 -50.4090 -50.4030 -50.3960 -43.5113 -19.7699 -19.7641 -19.7635
    -7.0653  -7.0640  -7.0604  -7.0542  -7.0512   4.7870  10.1163  10.7620
    10.9627  11.4623  11.5517  12.0278  12.8216  13.1992

          k =-0.3333 0.5000-0.1667 (   983 PWs)   bands (ev):

   -90.0945 -50.4134 -50.4046 -50.4004 -43.5111 -19.7728 -19.7651 -19.7642
    -7.0643  -7.0625  -7.0587  -7.0504  -7.0475   5.2920   9.6348  10.6407
    10.8465  11.4476  11.5467  11.6945  12.7654  13.0725

          k = 0.5833-0.4167 0.7500 (   984 PWs)   bands (ev):

   -90.0945 -50.4135 -50.4046 -50.4005 -43.5109 -19.7749 -19.7659 -19.7647
    -7.0636  -7.0610  -7.0576  -7.0478  -7.0446   5.7968   9.0387  10.5571
    10.7797  11.4537  11.5123  11.5774  12.7517  12.9912

          k = 0.5000-0.3333 0.6667 (   976 PWs)   bands (ev):

   -90.0931 -50.4064 -50.4029 -50.3980 -43.5107 -19.7757 -19.7661 -19.7649
    -7.0633  -7.0604  -7.0572  -7.0469  -7.0435   6.0428   8.7414  10.5364
    10.7617  11.4771  11.5016  11.5587  12.7511  12.9689

          k =-0.1667 0.5000 0.0000 (   983 PWs)   bands (ev):

   -90.0949 -50.4118 -50.4066 -50.4024 -43.5113 -19.7704 -19.7643 -19.7639
    -7.0692  -7.0634  -7.0607  -7.0511  -7.0501   4.9063   9.9272  10.9372
    11.0459  11.4473  11.5413  12.1223  12.7592  13.0589

          k =-0.2500 0.5833-0.0833 (   984 PWs)   bands (ev):

   -90.0946 -50.4140 -50.4035 -50.4018 -43.5110 -19.7724 -19.7656 -19.7646
    -7.0680  -7.0635  -7.0584  -7.0487  -7.0469   5.3477   9.6560  10.7692
    10.9898  11.4501  11.5561  11.8078  12.5910  12.9702

          k = 0.6667-0.3333 0.8333 (   986 PWs)   bands (ev):

   -90.0949 -50.4112 -50.4054 -50.4045 -43.5108 -19.7738 -19.7668 -19.7652
    -7.0664  -7.0622  -7.0565  -7.0484  -7.0441   5.8169   9.3105  10.5045
    10.9253  11.4551  11.5379  11.6456  12.5071  12.8946

          k = 0.5833-0.2500 0.7500 (   977 PWs)   bands (ev):

   -90.0932 -50.4051 -50.4025 -50.4004 -43.5106 -19.7744 -19.7677 -19.7654
    -7.0658  -7.0598  -7.0548  -7.0498  -7.0431   6.1340   9.0320  10.3580
    10.8603  11.4458  11.5419  11.6430  12.4565  12.8686

          k = 0.5000-0.1667 0.6667 (   983 PWs)   bands (ev):

   -90.0943 -50.4094 -50.4045 -50.4030 -43.5107 -19.7741 -19.7678 -19.7653
    -7.0655  -7.0590  -7.0541  -7.0505  -7.0443   6.0663   9.1106  10.3631
    10.7912  11.4326  11.5600  11.6514  12.4132  12.8860

          k = 0.4167-0.0833 0.5833 (   985 PWs)   bands (ev):

   -90.0947 -50.4138 -50.4057 -50.4003 -43.5109 -19.7731 -19.7670 -19.7648
    -7.0651  -7.0610  -7.0553  -7.0495  -7.0473   5.6740   9.4754  10.5248
    10.7625  11.4341  11.5884  11.7004  12.4007  12.9665

          k = 0.3333 0.0000 0.5000 (   984 PWs)   bands (ev):

   -90.0948 -50.4130 -50.4075 -50.3997 -43.5111 -19.7717 -19.7656 -19.7641
    -7.0646  -7.0636  -7.0573  -7.0516  -7.0491   5.1999   9.8306  10.6887
    10.8644  11.4283  11.5806  11.8583  12.4907  13.0903

          k =-0.1667 0.6667-0.0000 (   982 PWs)   bands (ev):

   -90.0941 -50.4088 -50.4041 -50.4023 -43.5109 -19.7730 -19.7656 -19.7652
    -7.0724  -7.0659  -7.0575  -7.0454  -7.0448   5.5197   9.5139  10.9503
    11.1417  11.4125  11.6085  11.8206  12.5825  12.8537

          k = 0.7500-0.2500 0.9167 (   988 PWs)   bands (ev):

   -90.0952 -50.4108 -50.4067 -50.4063 -43.5108 -19.7737 -19.7669 -19.7657
    -7.0706  -7.0664  -7.0556  -7.0455  -7.0424   5.9126   9.3656  10.6563
    11.1064  11.4518  11.5441  11.6784  12.3504  12.8082

          k = 0.6667-0.1667 0.8333 (   981 PWs)   bands (ev):

   -90.0939 -50.4067 -50.4052 -50.4017 -43.5105 -19.7735 -19.7686 -19.7659
    -7.0692  -7.0636  -7.0540  -7.0478  -7.0415   6.2168   9.3069  10.2940
    11.0237  11.3928  11.5869  11.6827  12.1878  12.7845

          k = 0.5833-0.0833 0.7500 (   980 PWs)   bands (ev):

   -90.0938 -50.4080 -50.4031 -50.4015 -43.5105 -19.7727 -19.7698 -19.7658
    -7.0682  -7.0585  -7.0530  -7.0516  -7.0427   6.2748   9.3570  10.0847
    10.8981  11.3794  11.6203  11.7220  12.1200  12.7930

          k = 0.5000 0.0000 0.6667 (   984 PWs)   bands (ev):

   -90.0945 -50.4079 -50.4073 -50.4028 -43.5107 -19.7728 -19.7690 -19.7654
    -7.0668  -7.0574  -7.0540  -7.0512  -7.0454   6.0496   9.4088  10.2277
    10.7916  11.4111  11.6181  11.7245  12.1770  12.8524

          k = 0.8333-0.1667 1.0000 (   986 PWs)   bands (ev):

   -90.0951 -50.4090 -50.4088 -50.4049 -43.5107 -19.7745 -19.7665 -19.7661
    -7.0747  -7.0703  -7.0547  -7.0423  -7.0403   6.0586   9.2609  10.8744
    11.2544  11.4169  11.4819  11.6961  12.4309  12.7609

          k = 0.7500-0.0833 0.9167 (   981 PWs)   bands (ev):

   -90.0941 -50.4073 -50.4061 -50.4016 -43.5105 -19.7740 -19.7679 -19.7663
    -7.0723  -7.0695  -7.0534  -7.0443  -7.0395   6.2787   9.2991  10.5520
    11.2014  11.3426  11.5417  11.6926  12.1521  12.7535

          k = 0.6667 0.0000 0.8333 (   982 PWs)   bands (ev):

   -90.0942 -50.4070 -50.4051 -50.4037 -43.5105 -19.7728 -19.7697 -19.7662
    -7.0706  -7.0643  -7.0525  -7.0482  -7.0406   6.3573   9.4448  10.1333
    11.0464  11.3277  11.6513  11.6995  12.0097  12.7460

          k =-0.1667-1.0000-0.0000 (   986 PWs)   bands (ev):

   -90.0951 -50.4100 -50.4079 -50.4052 -43.5105 -19.7749 -19.7668 -19.7665
    -7.0755  -7.0726  -7.0537  -7.0412  -7.0387   6.2828   9.1910  10.8462
    11.3027  11.3154  11.4299  11.7195  12.3632  12.7500

          k = 0.6667-0.3333 1.0000 (   983 PWs)   bands (ev):

   -90.0942 -50.4102 -50.4051 -50.4009 -43.5108 -19.7731 -19.7670 -19.7653
    -7.0659  -7.0652  -7.0559  -7.0476  -7.0451   5.7537   9.4821  10.5782
    10.9466  11.4462  11.5668  11.7408  12.3030  12.8876

          k = 0.5833-0.2500 0.9167 (   985 PWs)   bands (ev):

   -90.0945 -50.4092 -50.4078 -50.4017 -43.5107 -19.7732 -19.7685 -19.7659
    -7.0666  -7.0620  -7.0545  -7.0499  -7.0426   6.1190   9.3540  10.2923
    10.9344  11.4054  11.5680  11.7072  12.1531  12.8208

          k = 0.5000-0.1667 0.8333 (   988 PWs)   bands (ev):

   -90.0951 -50.4110 -50.4070 -50.4054 -43.5106 -19.7731 -19.7691 -19.7661
    -7.0671  -7.0593  -7.0541  -7.0520  -7.0416   6.2758   9.2987  10.1580
    10.9345  11.3774  11.5575  11.7113  12.0964  12.7981

          k = 0.6667-0.1667 1.0000 (   982 PWs)   bands (ev):

   -90.0940 -50.4071 -50.4049 -50.4025 -43.5105 -19.7734 -19.7681 -19.7665
    -7.0685  -7.0673  -7.0539  -7.0476  -7.0403   6.2002   9.3770  10.4250
    11.1334  11.3855  11.5320  11.6934  12.0394  12.7871

          k = 0.5833-0.0833 0.9167 (   986 PWs)   bands (ev):

   -90.0947 -50.4098 -50.4067 -50.4035 -43.5105 -19.7724 -19.7696 -19.7669
    -7.0689  -7.0626  -7.0533  -7.0513  -7.0395   6.3613   9.5007  10.1270
    11.0800  11.3160  11.5839  11.6998  11.8457  12.7719

          k = 0.5000 0.0000 0.8333 (   984 PWs)   bands (ev):

   -90.0943 -50.4071 -50.4068 -50.4030 -43.5105 -19.7721 -19.7700 -19.7666
    -7.0682  -7.0587  -7.0559  -7.0516  -7.0405   6.3287   9.5161  10.0514
    10.9955  11.3405  11.5984  11.7469  11.8713  12.7798

          k =-0.3333-1.0000 0.0000 (   982 PWs)   bands (ev):

   -90.0941 -50.4069 -50.4052 -50.4032 -43.5105 -19.7733 -19.7684 -19.7671
    -7.0701  -7.0681  -7.0525  -7.0481  -7.0386   6.3680   9.4110  10.3698
    11.2171  11.2957  11.5254  11.6738  11.8909  12.7769

          k =-0.5000-1.0000 0.0000 (   992 PWs)   bands (ev):

   -90.0957 -50.4099 -50.4096 -50.4084 -43.5106 -19.7717 -19.7700 -19.7674
    -7.0691  -7.0594  -7.0566  -7.0518  -7.0386   6.4131   9.6343  10.0377
    11.1207  11.2828  11.5546  11.6246  11.7425  12.7733

     highest occupied level (ev):    13.4654

!    total energy              =    -625.73638370 Ry
     estimated scf accuracy    <       0.00000019 Ry

     The total energy is the sum of the following terms:
     one-electron contribution =    -357.16057412 Ry
     hartree contribution      =     203.33945553 Ry
     xc contribution           =    -101.28101423 Ry
     ewald contribution        =    -370.63425088 Ry

     convergence has been achieved in  35 iterations

     Writing output data file /home/user11/Downloads/lab-test/tmp/tinisn.save/

     init_run     :     25.51s CPU      3.75s WALL (       1 calls)
     electrons    :   2296.26s CPU    304.41s WALL (       1 calls)

     Called by init_run:
     wfcinit      :     24.68s CPU      3.18s WALL (       1 calls)
     potinit      :      0.01s CPU      0.02s WALL (       1 calls)
     hinit0       :      0.38s CPU      0.42s WALL (       1 calls)

     Called by electrons:
     c_bands      :   1953.34s CPU    258.63s WALL (      35 calls)
     sum_band     :    320.04s CPU     42.64s WALL (      35 calls)
     v_of_rho     :      3.96s CPU      0.53s WALL (      36 calls)
     newd         :     18.25s CPU      2.58s WALL (      36 calls)
     mix_rho      :      0.74s CPU      0.10s WALL (      35 calls)

     Called by c_bands:
     init_us_2    :     37.69s CPU      4.79s WALL (    5112 calls)
     cegterg      :   1828.67s CPU    242.45s WALL (    2520 calls)

     Called by *egterg:
     cdiaghg      :    111.58s CPU     14.13s WALL (   12795 calls)
     h_psi        :   1570.33s CPU    208.21s WALL (   12867 calls)
     s_psi        :     21.29s CPU      3.08s WALL (   12867 calls)
     g_psi        :     12.73s CPU      1.47s WALL (   10275 calls)

     Called by h_psi:
     h_psi:calbec :    160.71s CPU     24.67s WALL (   12867 calls)
     vloc_psi     :   1380.13s CPU    179.47s WALL (   12867 calls)
     add_vuspsi   :     23.57s CPU      3.37s WALL (   12867 calls)

     General routines
     calbec       :    195.65s CPU     30.00s WALL (   15387 calls)
     fft          :      2.04s CPU      0.32s WALL (     396 calls)
     ffts         :      0.19s CPU      0.03s WALL (      35 calls)
     fftw         :   1444.74s CPU    188.61s WALL (  376654 calls)

     Parallel routines

     PWSCF        :  38m42.49s CPU   5m 8.84s WALL


   This run was terminated on:  12:33:21  27Nov2023            

=------------------------------------------------------------------------------=
   JOB DONE.
=------------------------------------------------------------------------------=
